LAMMPS Description

1000 atoms

2 atom types

-6.0 6.0 xlo xhi
-15.0 15.0 ylo yhi
-6.0 6.0 zlo zhi
0. 0. 0. xy xz yz

Atoms # sphere

1 2 0.8333333333333334 1.0 -5.5 -11.0 -5.5
2 1 1.1666666666666667 1.0 -5.5 -11.0 -4.277777777777778
3 2 0.8333333333333334 1.0 -5.5 -11.0 -3.0555555555555554
4 1 1.1666666666666667 1.0 -5.5 -11.0 -1.833333333333333
5 2 0.8333333333333334 1.0 -5.5 -11.0 -0.6111111111111107
6 1 1.1666666666666667 1.0 -5.5 -11.0 0.6111111111111116
7 2 0.8333333333333334 1.0 -5.5 -11.0 1.833333333333334
8 1 1.1666666666666667 1.0 -5.5 -11.0 3.055555555555557
9 2 0.8333333333333334 1.0 -5.5 -11.0 4.277777777777779
10 1 1.1666666666666667 1.0 -5.5 -11.0 5.5
11 2 0.8333333333333334 1.0 -5.5 -8.555555555555555 -5.5
12 1 1.1666666666666667 1.0 -5.5 -8.555555555555555 -4.277777777777778
13 2 0.8333333333333334 1.0 -5.5 -8.555555555555555 -3.0555555555555554
14 1 1.1666666666666667 1.0 -5.5 -8.555555555555555 -1.833333333333333
15 2 0.8333333333333334 1.0 -5.5 -8.555555555555555 -0.6111111111111107
16 1 1.1666666666666667 1.0 -5.5 -8.555555555555555 0.6111111111111116
17 2 0.8333333333333334 1.0 -5.5 -8.555555555555555 1.833333333333334
18 1 1.1666666666666667 1.0 -5.5 -8.555555555555555 3.055555555555557
19 2 0.8333333333333334 1.0 -5.5 -8.555555555555555 4.277777777777779
20 1 1.1666666666666667 1.0 -5.5 -8.555555555555555 5.5
21 2 0.8333333333333334 1.0 -5.5 -6.111111111111111 -5.5
22 1 1.1666666666666667 1.0 -5.5 -6.111111111111111 -4.277777777777778
23 2 0.8333333333333334 1.0 -5.5 -6.111111111111111 -3.0555555555555554
24 1 1.1666666666666667 1.0 -5.5 -6.111111111111111 -1.833333333333333
25 2 0.8333333333333334 1.0 -5.5 -6.111111111111111 -0.6111111111111107
26 1 1.1666666666666667 1.0 -5.5 -6.111111111111111 0.6111111111111116
27 2 0.8333333333333334 1.0 -5.5 -6.111111111111111 1.833333333333334
28 1 1.1666666666666667 1.0 -5.5 -6.111111111111111 3.055555555555557
29 2 0.8333333333333334 1.0 -5.5 -6.111111111111111 4.277777777777779
30 1 1.1666666666666667 1.0 -5.5 -6.111111111111111 5.5
31 2 0.8333333333333334 1.0 -5.5 -3.666666666666666 -5.5
32 1 1.1666666666666667 1.0 -5.5 -3.666666666666666 -4.277777777777778
33 2 0.8333333333333334 1.0 -5.5 -3.666666666666666 -3.0555555555555554
34 1 1.1666666666666667 1.0 -5.5 -3.666666666666666 -1.833333333333333
35 2 0.8333333333333334 1.0 -5.5 -3.666666666666666 -0.6111111111111107
36 1 1.1666666666666667 1.0 -5.5 -3.666666666666666 0.6111111111111116
37 2 0.8333333333333334 1.0 -5.5 -3.666666666666666 1.833333333333334
38 1 1.1666666666666667 1.0 -5.5 -3.666666666666666 3.055555555555557
39 2 0.8333333333333334 1.0 -5.5 -3.666666666666666 4.277777777777779
40 1 1.1666666666666667 1.0 -5.5 -3.666666666666666 5.5
41 2 0.8333333333333334 1.0 -5.5 -1.2222222222222214 -5.5
42 1 1.1666666666666667 1.0 -5.5 -1.2222222222222214 -4.277777777777778
43 2 0.8333333333333334 1.0 -5.5 -1.2222222222222214 -3.0555555555555554
44 1 1.1666666666666667 1.0 -5.5 -1.2222222222222214 -1.833333333333333
45 2 0.8333333333333334 1.0 -5.5 -1.2222222222222214 -0.6111111111111107
46 1 1.1666666666666667 1.0 -5.5 -1.2222222222222214 0.6111111111111116
47 2 0.8333333333333334 1.0 -5.5 -1.2222222222222214 1.833333333333334
48 1 1.1666666666666667 1.0 -5.5 -1.2222222222222214 3.055555555555557
49 2 0.8333333333333334 1.0 -5.5 -1.2222222222222214 4.277777777777779
50 1 1.1666666666666667 1.0 -5.5 -1.2222222222222214 5.5
51 2 0.8333333333333334 1.0 -5.5 1.2222222222222232 -5.5
52 1 1.1666666666666667 1.0 -5.5 1.2222222222222232 -4.277777777777778
53 2 0.8333333333333334 1.0 -5.5 1.2222222222222232 -3.0555555555555554
54 1 1.1666666666666667 1.0 -5.5 1.2222222222222232 -1.833333333333333
55 2 0.8333333333333334 1.0 -5.5 1.2222222222222232 -0.6111111111111107
56 1 1.1666666666666667 1.0 -5.5 1.2222222222222232 0.6111111111111116
57 2 0.8333333333333334 1.0 -5.5 1.2222222222222232 1.833333333333334
58 1 1.1666666666666667 1.0 -5.5 1.2222222222222232 3.055555555555557
59 2 0.8333333333333334 1.0 -5.5 1.2222222222222232 4.277777777777779
60 1 1.1666666666666667 1.0 -5.5 1.2222222222222232 5.5
61 2 0.8333333333333334 1.0 -5.5 3.666666666666668 -5.5
62 1 1.1666666666666667 1.0 -5.5 3.666666666666668 -4.277777777777778
63 2 0.8333333333333334 1.0 -5.5 3.666666666666668 -3.0555555555555554
64 1 1.1666666666666667 1.0 -5.5 3.666666666666668 -1.833333333333333
65 2 0.8333333333333334 1.0 -5.5 3.666666666666668 -0.6111111111111107
66 1 1.1666666666666667 1.0 -5.5 3.666666666666668 0.6111111111111116
67 2 0.8333333333333334 1.0 -5.5 3.666666666666668 1.833333333333334
68 1 1.1666666666666667 1.0 -5.5 3.666666666666668 3.055555555555557
69 2 0.8333333333333334 1.0 -5.5 3.666666666666668 4.277777777777779
70 1 1.1666666666666667 1.0 -5.5 3.666666666666668 5.5
71 2 0.8333333333333334 1.0 -5.5 6.111111111111114 -5.5
72 1 1.1666666666666667 1.0 -5.5 6.111111111111114 -4.277777777777778
73 2 0.8333333333333334 1.0 -5.5 6.111111111111114 -3.0555555555555554
74 1 1.1666666666666667 1.0 -5.5 6.111111111111114 -1.833333333333333
75 2 0.8333333333333334 1.0 -5.5 6.111111111111114 -0.6111111111111107
76 1 1.1666666666666667 1.0 -5.5 6.111111111111114 0.6111111111111116
77 2 0.8333333333333334 1.0 -5.5 6.111111111111114 1.833333333333334
78 1 1.1666666666666667 1.0 -5.5 6.111111111111114 3.055555555555557
79 2 0.8333333333333334 1.0 -5.5 6.111111111111114 4.277777777777779
80 1 1.1666666666666667 1.0 -5.5 6.111111111111114 5.5
81 2 0.8333333333333334 1.0 -5.5 8.555555555555557 -5.5
82 1 1.1666666666666667 1.0 -5.5 8.555555555555557 -4.277777777777778
83 2 0.8333333333333334 1.0 -5.5 8.555555555555557 -3.0555555555555554
84 1 1.1666666666666667 1.0 -5.5 8.555555555555557 -1.833333333333333
85 2 0.8333333333333334 1.0 -5.5 8.555555555555557 -0.6111111111111107
86 1 1.1666666666666667 1.0 -5.5 8.555555555555557 0.6111111111111116
87 2 0.8333333333333334 1.0 -5.5 8.555555555555557 1.833333333333334
88 1 1.1666666666666667 1.0 -5.5 8.555555555555557 3.055555555555557
89 2 0.8333333333333334 1.0 -5.5 8.555555555555557 4.277777777777779
90 1 1.1666666666666667 1.0 -5.5 8.555555555555557 5.5
91 2 0.8333333333333334 1.0 -5.5 11.0 -5.5
92 1 1.1666666666666667 1.0 -5.5 11.0 -4.277777777777778
93 2 0.8333333333333334 1.0 -5.5 11.0 -3.0555555555555554
94 1 1.1666666666666667 1.0 -5.5 11.0 -1.833333333333333
95 2 0.8333333333333334 1.0 -5.5 11.0 -0.6111111111111107
96 1 1.1666666666666667 1.0 -5.5 11.0 0.6111111111111116
97 2 0.8333333333333334 1.0 -5.5 11.0 1.833333333333334
98 1 1.1666666666666667 1.0 -5.5 11.0 3.055555555555557
99 2 0.8333333333333334 1.0 -5.5 11.0 4.277777777777779
100 1 1.1666666666666667 1.0 -5.5 11.0 5.5
101 2 0.8333333333333334 1.0 -4.277777777777778 -11.0 -5.5
102 1 1.1666666666666667 1.0 -4.277777777777778 -11.0 -4.277777777777778
103 2 0.8333333333333334 1.0 -4.277777777777778 -11.0 -3.0555555555555554
104 1 1.1666666666666667 1.0 -4.277777777777778 -11.0 -1.833333333333333
105 2 0.8333333333333334 1.0 -4.277777777777778 -11.0 -0.6111111111111107
106 1 1.1666666666666667 1.0 -4.277777777777778 -11.0 0.6111111111111116
107 2 0.8333333333333334 1.0 -4.277777777777778 -11.0 1.833333333333334
108 1 1.1666666666666667 1.0 -4.277777777777778 -11.0 3.055555555555557
109 2 0.8333333333333334 1.0 -4.277777777777778 -11.0 4.277777777777779
110 1 1.1666666666666667 1.0 -4.277777777777778 -11.0 5.5
111 2 0.8333333333333334 1.0 -4.277777777777778 -8.555555555555555 -5.5
112 1 1.1666666666666667 1.0 -4.277777777777778 -8.555555555555555 -4.277777777777778
113 2 0.8333333333333334 1.0 -4.277777777777778 -8.555555555555555 -3.0555555555555554
114 1 1.1666666666666667 1.0 -4.277777777777778 -8.555555555555555 -1.833333333333333
115 2 0.8333333333333334 1.0 -4.277777777777778 -8.555555555555555 -0.6111111111111107
116 1 1.1666666666666667 1.0 -4.277777777777778 -8.555555555555555 0.6111111111111116
117 2 0.8333333333333334 1.0 -4.277777777777778 -8.555555555555555 1.833333333333334
118 1 1.1666666666666667 1.0 -4.277777777777778 -8.555555555555555 3.055555555555557
119 2 0.8333333333333334 1.0 -4.277777777777778 -8.555555555555555 4.277777777777779
120 1 1.1666666666666667 1.0 -4.277777777777778 -8.555555555555555 5.5
121 2 0.8333333333333334 1.0 -4.277777777777778 -6.111111111111111 -5.5
122 1 1.1666666666666667 1.0 -4.277777777777778 -6.111111111111111 -4.277777777777778
123 2 0.8333333333333334 1.0 -4.277777777777778 -6.111111111111111 -3.0555555555555554
124 1 1.1666666666666667 1.0 -4.277777777777778 -6.111111111111111 -1.833333333333333
125 2 0.8333333333333334 1.0 -4.277777777777778 -6.111111111111111 -0.6111111111111107
126 1 1.1666666666666667 1.0 -4.277777777777778 -6.111111111111111 0.6111111111111116
127 2 0.8333333333333334 1.0 -4.277777777777778 -6.111111111111111 1.833333333333334
128 1 1.1666666666666667 1.0 -4.277777777777778 -6.111111111111111 3.055555555555557
129 2 0.8333333333333334 1.0 -4.277777777777778 -6.111111111111111 4.277777777777779
130 1 1.1666666666666667 1.0 -4.277777777777778 -6.111111111111111 5.5
131 2 0.8333333333333334 1.0 -4.277777777777778 -3.666666666666666 -5.5
132 1 1.1666666666666667 1.0 -4.277777777777778 -3.666666666666666 -4.277777777777778
133 2 0.8333333333333334 1.0 -4.277777777777778 -3.666666666666666 -3.0555555555555554
134 1 1.1666666666666667 1.0 -4.277777777777778 -3.666666666666666 -1.833333333333333
135 2 0.8333333333333334 1.0 -4.277777777777778 -3.666666666666666 -0.6111111111111107
136 1 1.1666666666666667 1.0 -4.277777777777778 -3.666666666666666 0.6111111111111116
137 2 0.8333333333333334 1.0 -4.277777777777778 -3.666666666666666 1.833333333333334
138 1 1.1666666666666667 1.0 -4.277777777777778 -3.666666666666666 3.055555555555557
139 2 0.8333333333333334 1.0 -4.277777777777778 -3.666666666666666 4.277777777777779
140 1 1.1666666666666667 1.0 -4.277777777777778 -3.666666666666666 5.5
141 2 0.8333333333333334 1.0 -4.277777777777778 -1.2222222222222214 -5.5
142 1 1.1666666666666667 1.0 -4.277777777777778 -1.2222222222222214 -4.277777777777778
143 2 0.8333333333333334 1.0 -4.277777777777778 -1.2222222222222214 -3.0555555555555554
144 1 1.1666666666666667 1.0 -4.277777777777778 -1.2222222222222214 -1.833333333333333
145 2 0.8333333333333334 1.0 -4.277777777777778 -1.2222222222222214 -0.6111111111111107
146 1 1.1666666666666667 1.0 -4.277777777777778 -1.2222222222222214 0.6111111111111116
147 2 0.8333333333333334 1.0 -4.277777777777778 -1.2222222222222214 1.833333333333334
148 1 1.1666666666666667 1.0 -4.277777777777778 -1.2222222222222214 3.055555555555557
149 2 0.8333333333333334 1.0 -4.277777777777778 -1.2222222222222214 4.277777777777779
150 1 1.1666666666666667 1.0 -4.277777777777778 -1.2222222222222214 5.5
151 2 0.8333333333333334 1.0 -4.277777777777778 1.2222222222222232 -5.5
152 1 1.1666666666666667 1.0 -4.277777777777778 1.2222222222222232 -4.277777777777778
153 2 0.8333333333333334 1.0 -4.277777777777778 1.2222222222222232 -3.0555555555555554
154 1 1.1666666666666667 1.0 -4.277777777777778 1.2222222222222232 -1.833333333333333
155 2 0.8333333333333334 1.0 -4.277777777777778 1.2222222222222232 -0.6111111111111107
156 1 1.1666666666666667 1.0 -4.277777777777778 1.2222222222222232 0.6111111111111116
157 2 0.8333333333333334 1.0 -4.277777777777778 1.2222222222222232 1.833333333333334
158 1 1.1666666666666667 1.0 -4.277777777777778 1.2222222222222232 3.055555555555557
159 2 0.8333333333333334 1.0 -4.277777777777778 1.2222222222222232 4.277777777777779
160 1 1.1666666666666667 1.0 -4.277777777777778 1.2222222222222232 5.5
161 2 0.8333333333333334 1.0 -4.277777777777778 3.666666666666668 -5.5
162 1 1.1666666666666667 1.0 -4.277777777777778 3.666666666666668 -4.277777777777778
163 2 0.8333333333333334 1.0 -4.277777777777778 3.666666666666668 -3.0555555555555554
164 1 1.1666666666666667 1.0 -4.277777777777778 3.666666666666668 -1.833333333333333
165 2 0.8333333333333334 1.0 -4.277777777777778 3.666666666666668 -0.6111111111111107
166 1 1.1666666666666667 1.0 -4.277777777777778 3.666666666666668 0.6111111111111116
167 2 0.8333333333333334 1.0 -4.277777777777778 3.666666666666668 1.833333333333334
168 1 1.1666666666666667 1.0 -4.277777777777778 3.666666666666668 3.055555555555557
169 2 0.8333333333333334 1.0 -4.277777777777778 3.666666666666668 4.277777777777779
170 1 1.1666666666666667 1.0 -4.277777777777778 3.666666666666668 5.5
171 2 0.8333333333333334 1.0 -4.277777777777778 6.111111111111114 -5.5
172 1 1.1666666666666667 1.0 -4.277777777777778 6.111111111111114 -4.277777777777778
173 2 0.8333333333333334 1.0 -4.277777777777778 6.111111111111114 -3.0555555555555554
174 1 1.1666666666666667 1.0 -4.277777777777778 6.111111111111114 -1.833333333333333
175 2 0.8333333333333334 1.0 -4.277777777777778 6.111111111111114 -0.6111111111111107
176 1 1.1666666666666667 1.0 -4.277777777777778 6.111111111111114 0.6111111111111116
177 2 0.8333333333333334 1.0 -4.277777777777778 6.111111111111114 1.833333333333334
178 1 1.1666666666666667 1.0 -4.277777777777778 6.111111111111114 3.055555555555557
179 2 0.8333333333333334 1.0 -4.277777777777778 6.111111111111114 4.277777777777779
180 1 1.1666666666666667 1.0 -4.277777777777778 6.111111111111114 5.5
181 2 0.8333333333333334 1.0 -4.277777777777778 8.555555555555557 -5.5
182 1 1.1666666666666667 1.0 -4.277777777777778 8.555555555555557 -4.277777777777778
183 2 0.8333333333333334 1.0 -4.277777777777778 8.555555555555557 -3.0555555555555554
184 1 1.1666666666666667 1.0 -4.277777777777778 8.555555555555557 -1.833333333333333
185 2 0.8333333333333334 1.0 -4.277777777777778 8.555555555555557 -0.6111111111111107
186 1 1.1666666666666667 1.0 -4.277777777777778 8.555555555555557 0.6111111111111116
187 2 0.8333333333333334 1.0 -4.277777777777778 8.555555555555557 1.833333333333334
188 1 1.1666666666666667 1.0 -4.277777777777778 8.555555555555557 3.055555555555557
189 2 0.8333333333333334 1.0 -4.277777777777778 8.555555555555557 4.277777777777779
190 1 1.1666666666666667 1.0 -4.277777777777778 8.555555555555557 5.5
191 2 0.8333333333333334 1.0 -4.277777777777778 11.0 -5.5
192 1 1.1666666666666667 1.0 -4.277777777777778 11.0 -4.277777777777778
193 2 0.8333333333333334 1.0 -4.277777777777778 11.0 -3.0555555555555554
194 1 1.1666666666666667 1.0 -4.277777777777778 11.0 -1.833333333333333
195 2 0.8333333333333334 1.0 -4.277777777777778 11.0 -0.6111111111111107
196 1 1.1666666666666667 1.0 -4.277777777777778 11.0 0.6111111111111116
197 2 0.8333333333333334 1.0 -4.277777777777778 11.0 1.833333333333334
198 1 1.1666666666666667 1.0 -4.277777777777778 11.0 3.055555555555557
199 2 0.8333333333333334 1.0 -4.277777777777778 11.0 4.277777777777779
200 1 1.1666666666666667 1.0 -4.277777777777778 11.0 5.5
201 2 0.8333333333333334 1.0 -3.0555555555555554 -11.0 -5.5
202 1 1.1666666666666667 1.0 -3.0555555555555554 -11.0 -4.277777777777778
203 2 0.8333333333333334 1.0 -3.0555555555555554 -11.0 -3.0555555555555554
204 1 1.1666666666666667 1.0 -3.0555555555555554 -11.0 -1.833333333333333
205 2 0.8333333333333334 1.0 -3.0555555555555554 -11.0 -0.6111111111111107
206 1 1.1666666666666667 1.0 -3.0555555555555554 -11.0 0.6111111111111116
207 2 0.8333333333333334 1.0 -3.0555555555555554 -11.0 1.833333333333334
208 1 1.1666666666666667 1.0 -3.0555555555555554 -11.0 3.055555555555557
209 2 0.8333333333333334 1.0 -3.0555555555555554 -11.0 4.277777777777779
210 1 1.1666666666666667 1.0 -3.0555555555555554 -11.0 5.5
211 2 0.8333333333333334 1.0 -3.0555555555555554 -8.555555555555555 -5.5
212 1 1.1666666666666667 1.0 -3.0555555555555554 -8.555555555555555 -4.277777777777778
213 2 0.8333333333333334 1.0 -3.0555555555555554 -8.555555555555555 -3.0555555555555554
214 1 1.1666666666666667 1.0 -3.0555555555555554 -8.555555555555555 -1.833333333333333
215 2 0.8333333333333334 1.0 -3.0555555555555554 -8.555555555555555 -0.6111111111111107
216 1 1.1666666666666667 1.0 -3.0555555555555554 -8.555555555555555 0.6111111111111116
217 2 0.8333333333333334 1.0 -3.0555555555555554 -8.555555555555555 1.833333333333334
218 1 1.1666666666666667 1.0 -3.0555555555555554 -8.555555555555555 3.055555555555557
219 2 0.8333333333333334 1.0 -3.0555555555555554 -8.555555555555555 4.277777777777779
220 1 1.1666666666666667 1.0 -3.0555555555555554 -8.555555555555555 5.5
221 2 0.8333333333333334 1.0 -3.0555555555555554 -6.111111111111111 -5.5
222 1 1.1666666666666667 1.0 -3.0555555555555554 -6.111111111111111 -4.277777777777778
223 2 0.8333333333333334 1.0 -3.0555555555555554 -6.111111111111111 -3.0555555555555554
224 1 1.1666666666666667 1.0 -3.0555555555555554 -6.111111111111111 -1.833333333333333
225 2 0.8333333333333334 1.0 -3.0555555555555554 -6.111111111111111 -0.6111111111111107
226 1 1.1666666666666667 1.0 -3.0555555555555554 -6.111111111111111 0.6111111111111116
227 2 0.8333333333333334 1.0 -3.0555555555555554 -6.111111111111111 1.833333333333334
228 1 1.1666666666666667 1.0 -3.0555555555555554 -6.111111111111111 3.055555555555557
229 2 0.8333333333333334 1.0 -3.0555555555555554 -6.111111111111111 4.277777777777779
230 1 1.1666666666666667 1.0 -3.0555555555555554 -6.111111111111111 5.5
231 2 0.8333333333333334 1.0 -3.0555555555555554 -3.666666666666666 -5.5
232 1 1.1666666666666667 1.0 -3.0555555555555554 -3.666666666666666 -4.277777777777778
233 2 0.8333333333333334 1.0 -3.0555555555555554 -3.666666666666666 -3.0555555555555554
234 1 1.1666666666666667 1.0 -3.0555555555555554 -3.666666666666666 -1.833333333333333
235 2 0.8333333333333334 1.0 -3.0555555555555554 -3.666666666666666 -0.6111111111111107
236 1 1.1666666666666667 1.0 -3.0555555555555554 -3.666666666666666 0.6111111111111116
237 2 0.8333333333333334 1.0 -3.0555555555555554 -3.666666666666666 1.833333333333334
238 1 1.1666666666666667 1.0 -3.0555555555555554 -3.666666666666666 3.055555555555557
239 2 0.8333333333333334 1.0 -3.0555555555555554 -3.666666666666666 4.277777777777779
240 1 1.1666666666666667 1.0 -3.0555555555555554 -3.666666666666666 5.5
241 2 0.8333333333333334 1.0 -3.0555555555555554 -1.2222222222222214 -5.5
242 1 1.1666666666666667 1.0 -3.0555555555555554 -1.2222222222222214 -4.277777777777778
243 2 0.8333333333333334 1.0 -3.0555555555555554 -1.2222222222222214 -3.0555555555555554
244 1 1.1666666666666667 1.0 -3.0555555555555554 -1.2222222222222214 -1.833333333333333
245 2 0.8333333333333334 1.0 -3.0555555555555554 -1.2222222222222214 -0.6111111111111107
246 1 1.1666666666666667 1.0 -3.0555555555555554 -1.2222222222222214 0.6111111111111116
247 2 0.8333333333333334 1.0 -3.0555555555555554 -1.2222222222222214 1.833333333333334
248 1 1.1666666666666667 1.0 -3.0555555555555554 -1.2222222222222214 3.055555555555557
249 2 0.8333333333333334 1.0 -3.0555555555555554 -1.2222222222222214 4.277777777777779
250 1 1.1666666666666667 1.0 -3.0555555555555554 -1.2222222222222214 5.5
251 2 0.8333333333333334 1.0 -3.0555555555555554 1.2222222222222232 -5.5
252 1 1.1666666666666667 1.0 -3.0555555555555554 1.2222222222222232 -4.277777777777778
253 2 0.8333333333333334 1.0 -3.0555555555555554 1.2222222222222232 -3.0555555555555554
254 1 1.1666666666666667 1.0 -3.0555555555555554 1.2222222222222232 -1.833333333333333
255 2 0.8333333333333334 1.0 -3.0555555555555554 1.2222222222222232 -0.6111111111111107
256 1 1.1666666666666667 1.0 -3.0555555555555554 1.2222222222222232 0.6111111111111116
257 2 0.8333333333333334 1.0 -3.0555555555555554 1.2222222222222232 1.833333333333334
258 1 1.1666666666666667 1.0 -3.0555555555555554 1.2222222222222232 3.055555555555557
259 2 0.8333333333333334 1.0 -3.0555555555555554 1.2222222222222232 4.277777777777779
260 1 1.1666666666666667 1.0 -3.0555555555555554 1.2222222222222232 5.5
261 2 0.8333333333333334 1.0 -3.0555555555555554 3.666666666666668 -5.5
262 1 1.1666666666666667 1.0 -3.0555555555555554 3.666666666666668 -4.277777777777778
263 2 0.8333333333333334 1.0 -3.0555555555555554 3.666666666666668 -3.0555555555555554
264 1 1.1666666666666667 1.0 -3.0555555555555554 3.666666666666668 -1.833333333333333
265 2 0.8333333333333334 1.0 -3.0555555555555554 3.666666666666668 -0.6111111111111107
266 1 1.1666666666666667 1.0 -3.0555555555555554 3.666666666666668 0.6111111111111116
267 2 0.8333333333333334 1.0 -3.0555555555555554 3.666666666666668 1.833333333333334
268 1 1.1666666666666667 1.0 -3.0555555555555554 3.666666666666668 3.055555555555557
269 2 0.8333333333333334 1.0 -3.0555555555555554 3.666666666666668 4.277777777777779
270 1 1.1666666666666667 1.0 -3.0555555555555554 3.666666666666668 5.5
271 2 0.8333333333333334 1.0 -3.0555555555555554 6.111111111111114 -5.5
272 1 1.1666666666666667 1.0 -3.0555555555555554 6.111111111111114 -4.277777777777778
273 2 0.8333333333333334 1.0 -3.0555555555555554 6.111111111111114 -3.0555555555555554
274 1 1.1666666666666667 1.0 -3.0555555555555554 6.111111111111114 -1.833333333333333
275 2 0.8333333333333334 1.0 -3.0555555555555554 6.111111111111114 -0.6111111111111107
276 1 1.1666666666666667 1.0 -3.0555555555555554 6.111111111111114 0.6111111111111116
277 2 0.8333333333333334 1.0 -3.0555555555555554 6.111111111111114 1.833333333333334
278 1 1.1666666666666667 1.0 -3.0555555555555554 6.111111111111114 3.055555555555557
279 2 0.8333333333333334 1.0 -3.0555555555555554 6.111111111111114 4.277777777777779
280 1 1.1666666666666667 1.0 -3.0555555555555554 6.111111111111114 5.5
281 2 0.8333333333333334 1.0 -3.0555555555555554 8.555555555555557 -5.5
282 1 1.1666666666666667 1.0 -3.0555555555555554 8.555555555555557 -4.277777777777778
283 2 0.8333333333333334 1.0 -3.0555555555555554 8.555555555555557 -3.0555555555555554
284 1 1.1666666666666667 1.0 -3.0555555555555554 8.555555555555557 -1.833333333333333
285 2 0.8333333333333334 1.0 -3.0555555555555554 8.555555555555557 -0.6111111111111107
286 1 1.1666666666666667 1.0 -3.0555555555555554 8.555555555555557 0.6111111111111116
287 2 0.8333333333333334 1.0 -3.0555555555555554 8.555555555555557 1.833333333333334
288 1 1.1666666666666667 1.0 -3.0555555555555554 8.555555555555557 3.055555555555557
289 2 0.8333333333333334 1.0 -3.0555555555555554 8.555555555555557 4.277777777777779
290 1 1.1666666666666667 1.0 -3.0555555555555554 8.555555555555557 5.5
291 2 0.8333333333333334 1.0 -3.0555555555555554 11.0 -5.5
292 1 1.1666666666666667 1.0 -3.0555555555555554 11.0 -4.277777777777778
293 2 0.8333333333333334 1.0 -3.0555555555555554 11.0 -3.0555555555555554
294 1 1.1666666666666667 1.0 -3.0555555555555554 11.0 -1.833333333333333
295 2 0.8333333333333334 1.0 -3.0555555555555554 11.0 -0.6111111111111107
296 1 1.1666666666666667 1.0 -3.0555555555555554 11.0 0.6111111111111116
297 2 0.8333333333333334 1.0 -3.0555555555555554 11.0 1.833333333333334
298 1 1.1666666666666667 1.0 -3.0555555555555554 11.0 3.055555555555557
299 2 0.8333333333333334 1.0 -3.0555555555555554 11.0 4.277777777777779
300 1 1.1666666666666667 1.0 -3.0555555555555554 11.0 5.5
301 2 0.8333333333333334 1.0 -1.833333333333333 -11.0 -5.5
302 1 1.1666666666666667 1.0 -1.833333333333333 -11.0 -4.277777777777778
303 2 0.8333333333333334 1.0 -1.833333333333333 -11.0 -3.0555555555555554
304 1 1.1666666666666667 1.0 -1.833333333333333 -11.0 -1.833333333333333
305 2 0.8333333333333334 1.0 -1.833333333333333 -11.0 -0.6111111111111107
306 1 1.1666666666666667 1.0 -1.833333333333333 -11.0 0.6111111111111116
307 2 0.8333333333333334 1.0 -1.833333333333333 -11.0 1.833333333333334
308 1 1.1666666666666667 1.0 -1.833333333333333 -11.0 3.055555555555557
309 2 0.8333333333333334 1.0 -1.833333333333333 -11.0 4.277777777777779
310 1 1.1666666666666667 1.0 -1.833333333333333 -11.0 5.5
311 2 0.8333333333333334 1.0 -1.833333333333333 -8.555555555555555 -5.5
312 1 1.1666666666666667 1.0 -1.833333333333333 -8.555555555555555 -4.277777777777778
313 2 0.8333333333333334 1.0 -1.833333333333333 -8.555555555555555 -3.0555555555555554
314 1 1.1666666666666667 1.0 -1.833333333333333 -8.555555555555555 -1.833333333333333
315 2 0.8333333333333334 1.0 -1.833333333333333 -8.555555555555555 -0.6111111111111107
316 1 1.1666666666666667 1.0 -1.833333333333333 -8.555555555555555 0.6111111111111116
317 2 0.8333333333333334 1.0 -1.833333333333333 -8.555555555555555 1.833333333333334
318 1 1.1666666666666667 1.0 -1.833333333333333 -8.555555555555555 3.055555555555557
319 2 0.8333333333333334 1.0 -1.833333333333333 -8.555555555555555 4.277777777777779
320 1 1.1666666666666667 1.0 -1.833333333333333 -8.555555555555555 5.5
321 2 0.8333333333333334 1.0 -1.833333333333333 -6.111111111111111 -5.5
322 1 1.1666666666666667 1.0 -1.833333333333333 -6.111111111111111 -4.277777777777778
323 2 0.8333333333333334 1.0 -1.833333333333333 -6.111111111111111 -3.0555555555555554
324 1 1.1666666666666667 1.0 -1.833333333333333 -6.111111111111111 -1.833333333333333
325 2 0.8333333333333334 1.0 -1.833333333333333 -6.111111111111111 -0.6111111111111107
326 1 1.1666666666666667 1.0 -1.833333333333333 -6.111111111111111 0.6111111111111116
327 2 0.8333333333333334 1.0 -1.833333333333333 -6.111111111111111 1.833333333333334
328 1 1.1666666666666667 1.0 -1.833333333333333 -6.111111111111111 3.055555555555557
329 2 0.8333333333333334 1.0 -1.833333333333333 -6.111111111111111 4.277777777777779
330 1 1.1666666666666667 1.0 -1.833333333333333 -6.111111111111111 5.5
331 2 0.8333333333333334 1.0 -1.833333333333333 -3.666666666666666 -5.5
332 1 1.1666666666666667 1.0 -1.833333333333333 -3.666666666666666 -4.277777777777778
333 2 0.8333333333333334 1.0 -1.833333333333333 -3.666666666666666 -3.0555555555555554
334 1 1.1666666666666667 1.0 -1.833333333333333 -3.666666666666666 -1.833333333333333
335 2 0.8333333333333334 1.0 -1.833333333333333 -3.666666666666666 -0.6111111111111107
336 1 1.1666666666666667 1.0 -1.833333333333333 -3.666666666666666 0.6111111111111116
337 2 0.8333333333333334 1.0 -1.833333333333333 -3.666666666666666 1.833333333333334
338 1 1.1666666666666667 1.0 -1.833333333333333 -3.666666666666666 3.055555555555557
339 2 0.8333333333333334 1.0 -1.833333333333333 -3.666666666666666 4.277777777777779
340 1 1.1666666666666667 1.0 -1.833333333333333 -3.666666666666666 5.5
341 2 0.8333333333333334 1.0 -1.833333333333333 -1.2222222222222214 -5.5
342 1 1.1666666666666667 1.0 -1.833333333333333 -1.2222222222222214 -4.277777777777778
343 2 0.8333333333333334 1.0 -1.833333333333333 -1.2222222222222214 -3.0555555555555554
344 1 1.1666666666666667 1.0 -1.833333333333333 -1.2222222222222214 -1.833333333333333
345 2 0.8333333333333334 1.0 -1.833333333333333 -1.2222222222222214 -0.6111111111111107
346 1 1.1666666666666667 1.0 -1.833333333333333 -1.2222222222222214 0.6111111111111116
347 2 0.8333333333333334 1.0 -1.833333333333333 -1.2222222222222214 1.833333333333334
348 1 1.1666666666666667 1.0 -1.833333333333333 -1.2222222222222214 3.055555555555557
349 2 0.8333333333333334 1.0 -1.833333333333333 -1.2222222222222214 4.277777777777779
350 1 1.1666666666666667 1.0 -1.833333333333333 -1.2222222222222214 5.5
351 2 0.8333333333333334 1.0 -1.833333333333333 1.2222222222222232 -5.5
352 1 1.1666666666666667 1.0 -1.833333333333333 1.2222222222222232 -4.277777777777778
353 2 0.8333333333333334 1.0 -1.833333333333333 1.2222222222222232 -3.0555555555555554
354 1 1.1666666666666667 1.0 -1.833333333333333 1.2222222222222232 -1.833333333333333
355 2 0.8333333333333334 1.0 -1.833333333333333 1.2222222222222232 -0.6111111111111107
356 1 1.1666666666666667 1.0 -1.833333333333333 1.2222222222222232 0.6111111111111116
357 2 0.8333333333333334 1.0 -1.833333333333333 1.2222222222222232 1.833333333333334
358 1 1.1666666666666667 1.0 -1.833333333333333 1.2222222222222232 3.055555555555557
359 2 0.8333333333333334 1.0 -1.833333333333333 1.2222222222222232 4.277777777777779
360 1 1.1666666666666667 1.0 -1.833333333333333 1.2222222222222232 5.5
361 2 0.8333333333333334 1.0 -1.833333333333333 3.666666666666668 -5.5
362 1 1.1666666666666667 1.0 -1.833333333333333 3.666666666666668 -4.277777777777778
363 2 0.8333333333333334 1.0 -1.833333333333333 3.666666666666668 -3.0555555555555554
364 1 1.1666666666666667 1.0 -1.833333333333333 3.666666666666668 -1.833333333333333
365 2 0.8333333333333334 1.0 -1.833333333333333 3.666666666666668 -0.6111111111111107
366 1 1.1666666666666667 1.0 -1.833333333333333 3.666666666666668 0.6111111111111116
367 2 0.8333333333333334 1.0 -1.833333333333333 3.666666666666668 1.833333333333334
368 1 1.1666666666666667 1.0 -1.833333333333333 3.666666666666668 3.055555555555557
369 2 0.8333333333333334 1.0 -1.833333333333333 3.666666666666668 4.277777777777779
370 1 1.1666666666666667 1.0 -1.833333333333333 3.666666666666668 5.5
371 2 0.8333333333333334 1.0 -1.833333333333333 6.111111111111114 -5.5
372 1 1.1666666666666667 1.0 -1.833333333333333 6.111111111111114 -4.277777777777778
373 2 0.8333333333333334 1.0 -1.833333333333333 6.111111111111114 -3.0555555555555554
374 1 1.1666666666666667 1.0 -1.833333333333333 6.111111111111114 -1.833333333333333
375 2 0.8333333333333334 1.0 -1.833333333333333 6.111111111111114 -0.6111111111111107
376 1 1.1666666666666667 1.0 -1.833333333333333 6.111111111111114 0.6111111111111116
377 2 0.8333333333333334 1.0 -1.833333333333333 6.111111111111114 1.833333333333334
378 1 1.1666666666666667 1.0 -1.833333333333333 6.111111111111114 3.055555555555557
379 2 0.8333333333333334 1.0 -1.833333333333333 6.111111111111114 4.277777777777779
380 1 1.1666666666666667 1.0 -1.833333333333333 6.111111111111114 5.5
381 2 0.8333333333333334 1.0 -1.833333333333333 8.555555555555557 -5.5
382 1 1.1666666666666667 1.0 -1.833333333333333 8.555555555555557 -4.277777777777778
383 2 0.8333333333333334 1.0 -1.833333333333333 8.555555555555557 -3.0555555555555554
384 1 1.1666666666666667 1.0 -1.833333333333333 8.555555555555557 -1.833333333333333
385 2 0.8333333333333334 1.0 -1.833333333333333 8.555555555555557 -0.6111111111111107
386 1 1.1666666666666667 1.0 -1.833333333333333 8.555555555555557 0.6111111111111116
387 2 0.8333333333333334 1.0 -1.833333333333333 8.555555555555557 1.833333333333334
388 1 1.1666666666666667 1.0 -1.833333333333333 8.555555555555557 3.055555555555557